# vtk DataFile Version 2.0
Written using VisIt writer
ASCII
DATASET UNSTRUCTURED_GRID
POINTS 400 float
  0.000000000000e+00   0.000000000000e+00   0.000000000000e+00   0.000000000000e+00   1.000000000000e+00   0.000000000000e+00   0.000000000000e+00   2.000000000000e+00   0.000000000000e+00 
  0.000000000000e+00   3.000000000000e+00   0.000000000000e+00   0.000000000000e+00   4.000000000000e+00   0.000000000000e+00   0.000000000000e+00   5.000000000000e+00   0.000000000000e+00 
  0.000000000000e+00   6.000000000000e+00   0.000000000000e+00   0.000000000000e+00   7.000000000000e+00   0.000000000000e+00   0.000000000000e+00   8.000000000000e+00   0.000000000000e+00 
  0.000000000000e+00   9.000000000000e+00   0.000000000000e+00   0.000000000000e+00   1.000000000000e+01   0.000000000000e+00   0.000000000000e+00   1.100000000000e+01   0.000000000000e+00 
  0.000000000000e+00   1.200000000000e+01   0.000000000000e+00   0.000000000000e+00   1.300000000000e+01   0.000000000000e+00   0.000000000000e+00   1.400000000000e+01   0.000000000000e+00 
  0.000000000000e+00   1.500000000000e+01   0.000000000000e+00   0.000000000000e+00   1.600000000000e+01   0.000000000000e+00   0.000000000000e+00   1.700000000000e+01   0.000000000000e+00 
  0.000000000000e+00   1.800000000000e+01   0.000000000000e+00   0.000000000000e+00   1.900000000000e+01   0.000000000000e+00   1.000000000000e+00   0.000000000000e+00   0.000000000000e+00 
  1.000000000000e+00   1.000000000000e+00   0.000000000000e+00   1.000000000000e+00   2.000000000000e+00   0.000000000000e+00   1.000000000000e+00   3.000000000000e+00   0.000000000000e+00 
  1.000000000000e+00   4.000000000000e+00   0.000000000000e+00   1.000000000000e+00   5.000000000000e+00   0.000000000000e+00   1.000000000000e+00   6.000000000000e+00   0.000000000000e+00 
  1.000000000000e+00   7.000000000000e+00   0.000000000000e+00   1.000000000000e+00   8.000000000000e+00   0.000000000000e+00   1.000000000000e+00   9.000000000000e+00   0.000000000000e+00 
  1.000000000000e+00   1.000000000000e+01   0.000000000000e+00   1.000000000000e+00   1.100000000000e+01   0.000000000000e+00   1.000000000000e+00   1.200000000000e+01   0.000000000000e+00 
  1.000000000000e+00   1.300000000000e+01   0.000000000000e+00   1.000000000000e+00   1.400000000000e+01   0.000000000000e+00   1.000000000000e+00   1.500000000000e+01   0.000000000000e+00 
  1.000000000000e+00   1.600000000000e+01   0.000000000000e+00   1.000000000000e+00   1.700000000000e+01   0.000000000000e+00   1.000000000000e+00   1.800000000000e+01   0.000000000000e+00 
  1.000000000000e+00   1.900000000000e+01   0.000000000000e+00   2.000000000000e+00   0.000000000000e+00   0.000000000000e+00   2.000000000000e+00   1.000000000000e+00   0.000000000000e+00 
  2.000000000000e+00   2.000000000000e+00   0.000000000000e+00   2.000000000000e+00   3.000000000000e+00   0.000000000000e+00   2.000000000000e+00   4.000000000000e+00   0.000000000000e+00 
  2.000000000000e+00   5.000000000000e+00   0.000000000000e+00   2.000000000000e+00   6.000000000000e+00   0.000000000000e+00   2.000000000000e+00   7.000000000000e+00   0.000000000000e+00 
  2.000000000000e+00   8.000000000000e+00   0.000000000000e+00   2.000000000000e+00   9.000000000000e+00   0.000000000000e+00   2.000000000000e+00   1.000000000000e+01   0.000000000000e+00 
  2.000000000000e+00   1.100000000000e+01   0.000000000000e+00   2.000000000000e+00   1.200000000000e+01   0.000000000000e+00   2.000000000000e+00   1.300000000000e+01   0.000000000000e+00 
  2.000000000000e+00   1.400000000000e+01   0.000000000000e+00   2.000000000000e+00   1.500000000000e+01   0.000000000000e+00   2.000000000000e+00   1.600000000000e+01   0.000000000000e+00 
  2.000000000000e+00   1.700000000000e+01   0.000000000000e+00   2.000000000000e+00   1.800000000000e+01   0.000000000000e+00   2.000000000000e+00   1.900000000000e+01   0.000000000000e+00 
  3.000000000000e+00   0.000000000000e+00   0.000000000000e+00   3.000000000000e+00   1.000000000000e+00   0.000000000000e+00   3.000000000000e+00   2.000000000000e+00   0.000000000000e+00 
  3.000000000000e+00   3.000000000000e+00   0.000000000000e+00   3.000000000000e+00   4.000000000000e+00   0.000000000000e+00   3.000000000000e+00   5.000000000000e+00   0.000000000000e+00 
  3.000000000000e+00   6.000000000000e+00   0.000000000000e+00   3.000000000000e+00   7.000000000000e+00   0.000000000000e+00   3.000000000000e+00   8.000000000000e+00   0.000000000000e+00 
  3.000000000000e+00   9.000000000000e+00   0.000000000000e+00   3.000000000000e+00   1.000000000000e+01   0.000000000000e+00   3.000000000000e+00   1.100000000000e+01   0.000000000000e+00 
  3.000000000000e+00   1.200000000000e+01   0.000000000000e+00   3.000000000000e+00   1.300000000000e+01   0.000000000000e+00   3.000000000000e+00   1.400000000000e+01   0.000000000000e+00 
  3.000000000000e+00   1.500000000000e+01   0.000000000000e+00   3.000000000000e+00   1.600000000000e+01   0.000000000000e+00   3.000000000000e+00   1.700000000000e+01   0.000000000000e+00 
  3.000000000000e+00   1.800000000000e+01   0.000000000000e+00   3.000000000000e+00   1.900000000000e+01   0.000000000000e+00   4.000000000000e+00   0.000000000000e+00   0.000000000000e+00 
  4.000000000000e+00   1.000000000000e+00   0.000000000000e+00   4.000000000000e+00   2.000000000000e+00   0.000000000000e+00   4.000000000000e+00   3.000000000000e+00   0.000000000000e+00 
  4.000000000000e+00   4.000000000000e+00   0.000000000000e+00   4.000000000000e+00   5.000000000000e+00   0.000000000000e+00   4.000000000000e+00   6.000000000000e+00   0.000000000000e+00 
  4.000000000000e+00   7.000000000000e+00   0.000000000000e+00   4.000000000000e+00   8.000000000000e+00   0.000000000000e+00   4.000000000000e+00   9.000000000000e+00   0.000000000000e+00 
  4.000000000000e+00   1.000000000000e+01   0.000000000000e+00   4.000000000000e+00   1.100000000000e+01   0.000000000000e+00   4.000000000000e+00   1.200000000000e+01   0.000000000000e+00 
  4.000000000000e+00   1.300000000000e+01   0.000000000000e+00   4.000000000000e+00   1.400000000000e+01   0.000000000000e+00   4.000000000000e+00   1.500000000000e+01   0.000000000000e+00 
  4.000000000000e+00   1.600000000000e+01   0.000000000000e+00   4.000000000000e+00   1.700000000000e+01   0.000000000000e+00   4.000000000000e+00   1.800000000000e+01   0.000000000000e+00 
  4.000000000000e+00   1.900000000000e+01   0.000000000000e+00   5.000000000000e+00   0.000000000000e+00   0.000000000000e+00   5.000000000000e+00   1.000000000000e+00   0.000000000000e+00 
  5.000000000000e+00   2.000000000000e+00   0.000000000000e+00   5.000000000000e+00   3.000000000000e+00   0.000000000000e+00   5.000000000000e+00   4.000000000000e+00   0.000000000000e+00 
  5.000000000000e+00   5.000000000000e+00   0.000000000000e+00   5.000000000000e+00   6.000000000000e+00   0.000000000000e+00   5.000000000000e+00   7.000000000000e+00   0.000000000000e+00 
  5.000000000000e+00   8.000000000000e+00   0.000000000000e+00   5.000000000000e+00   9.000000000000e+00   0.000000000000e+00   5.000000000000e+00   1.000000000000e+01   0.000000000000e+00 
  5.000000000000e+00   1.100000000000e+01   0.000000000000e+00   5.000000000000e+00   1.200000000000e+01   0.000000000000e+00   5.000000000000e+00   1.300000000000e+01   0.000000000000e+00 
  5.000000000000e+00   1.400000000000e+01   0.000000000000e+00   5.000000000000e+00   1.500000000000e+01   0.000000000000e+00   5.000000000000e+00   1.600000000000e+01   0.000000000000e+00 
  5.000000000000e+00   1.700000000000e+01   0.000000000000e+00   5.000000000000e+00   1.800000000000e+01   0.000000000000e+00   5.000000000000e+00   1.900000000000e+01   0.000000000000e+00 
  6.000000000000e+00   0.000000000000e+00   0.000000000000e+00   6.000000000000e+00   1.000000000000e+00   0.000000000000e+00   6.000000000000e+00   2.000000000000e+00   0.000000000000e+00 
  6.000000000000e+00   3.000000000000e+00   0.000000000000e+00   6.000000000000e+00   4.000000000000e+00   0.000000000000e+00   6.000000000000e+00   5.000000000000e+00   0.000000000000e+00 
  6.000000000000e+00   6.000000000000e+00   0.000000000000e+00   6.000000000000e+00   7.000000000000e+00   0.000000000000e+00   6.000000000000e+00   8.000000000000e+00   0.000000000000e+00 
  6.000000000000e+00   9.000000000000e+00   0.000000000000e+00   6.000000000000e+00   1.000000000000e+01   0.000000000000e+00   6.000000000000e+00   1.100000000000e+01   0.000000000000e+00 
  6.000000000000e+00   1.200000000000e+01   0.000000000000e+00   6.000000000000e+00   1.300000000000e+01   0.000000000000e+00   6.000000000000e+00   1.400000000000e+01   0.000000000000e+00 
  6.000000000000e+00   1.500000000000e+01   0.000000000000e+00   6.000000000000e+00   1.600000000000e+01   0.000000000000e+00   6.000000000000e+00   1.700000000000e+01   0.000000000000e+00 
  6.000000000000e+00   1.800000000000e+01   0.000000000000e+00   6.000000000000e+00   1.900000000000e+01   0.000000000000e+00   7.000000000000e+00   0.000000000000e+00   0.000000000000e+00 
  7.000000000000e+00   1.000000000000e+00   0.000000000000e+00   7.000000000000e+00   2.000000000000e+00   0.000000000000e+00   7.000000000000e+00   3.000000000000e+00   0.000000000000e+00 
  7.000000000000e+00   4.000000000000e+00   0.000000000000e+00   7.000000000000e+00   5.000000000000e+00   0.000000000000e+00   7.000000000000e+00   6.000000000000e+00   0.000000000000e+00 
  7.000000000000e+00   7.000000000000e+00   0.000000000000e+00   7.000000000000e+00   8.000000000000e+00   0.000000000000e+00   7.000000000000e+00   9.000000000000e+00   0.000000000000e+00 
  7.000000000000e+00   1.000000000000e+01   0.000000000000e+00   7.000000000000e+00   1.100000000000e+01   0.000000000000e+00   7.000000000000e+00   1.200000000000e+01   0.000000000000e+00 
  7.000000000000e+00   1.300000000000e+01   0.000000000000e+00   7.000000000000e+00   1.400000000000e+01   0.000000000000e+00   7.000000000000e+00   1.500000000000e+01   0.000000000000e+00 
[...]
CELL_DATA 361
POINT_DATA 400
SCALARS radius float
LOOKUP_TABLE default
  0.000000000000e+00   1.000000000000e+00   2.000000000000e+00   3.000000000000e+00   4.000000000000e+00   5.000000000000e+00   6.000000000000e+00   7.000000000000e+00   8.000000000000e+00 
  9.000000000000e+00   1.000000000000e+01   1.100000000000e+01   1.200000000000e+01   1.300000000000e+01   1.400000000000e+01   1.500000000000e+01   1.600000000000e+01   1.700000000000e+01 
  1.800000000000e+01   1.900000000000e+01   1.000000000000e+00   1.414213538170e+00   2.236068010330e+00   3.162277698517e+00   4.123105525970e+00   5.099019527435e+00   6.082762718201e+00 
  7.071067810059e+00   8.062257766724e+00   9.055385589600e+00   1.004987525940e+01   1.104536056519e+01   1.204159450531e+01   1.303840446472e+01   1.403566837311e+01   1.503329658508e+01 
  1.603121948242e+01   1.702938652039e+01   1.802775573730e+01   1.902629852295e+01   2.000000000000e+00   2.236068010330e+00   2.828427076340e+00   3.605551242828e+00   4.472136020660e+00 
  5.385164737701e+00   6.324555397034e+00   7.280109882355e+00   8.246211051941e+00   9.219544410706e+00   1.019803905487e+01   1.118033981323e+01   1.216552543640e+01   1.315294647217e+01 
  1.414213562012e+01   1.513274574280e+01   1.612451553345e+01   1.711724281311e+01   1.811077117920e+01   1.910497283936e+01   3.000000000000e+00   3.162277698517e+00   3.605551242828e+00 
  4.242640495300e+00   5.000000000000e+00   5.830951690674e+00   6.708203792572e+00   7.615773200989e+00   8.544003486633e+00   9.486832618713e+00   1.044030666351e+01   1.140175437927e+01 
  1.236931705475e+01   1.334166431427e+01   1.431782150269e+01   1.529705810547e+01   1.627882003784e+01   1.726267623901e+01   1.824828720093e+01   1.923538398743e+01   4.000000000000e+00 
  4.123105525970e+00   4.472136020660e+00   5.000000000000e+00   5.656854152679e+00   6.403124332428e+00   7.211102485657e+00   8.062257766724e+00   8.944272041321e+00   9.848857879639e+00 
  1.077032947540e+01   1.170469951630e+01   1.264911079407e+01   1.360147094727e+01   1.456021976471e+01   1.552417469025e+01   1.649242210388e+01   1.746424865723e+01   1.843908882141e+01 
  1.941648864746e+01   5.000000000000e+00   5.099019527435e+00   5.385164737701e+00   5.830951690674e+00   6.403124332428e+00   7.071067810059e+00   7.810249805450e+00   8.602325439453e+00 
  9.433980941772e+00   1.029563045502e+01   1.118033981323e+01   1.208304595947e+01   1.300000000000e+01   1.392838859558e+01   1.486606884003e+01   1.581138801575e+01   1.676305389404e+01 
  1.772004508972e+01   1.868154144287e+01   1.964688301086e+01   6.000000000000e+00   6.082762718201e+00   6.324555397034e+00   6.708203792572e+00   7.211102485657e+00   7.810249805450e+00 
  8.485280990601e+00   9.219544410706e+00   1.000000000000e+01   1.081665420532e+01   1.166190338135e+01   1.252996444702e+01   1.341640758514e+01   1.431782150269e+01   1.523154640198e+01 
  1.615549468994e+01   1.708800697327e+01   1.802775573730e+01   1.897366523743e+01   1.992485809326e+01   7.000000000000e+00   7.071067810059e+00   7.280109882355e+00   7.615773200989e+00 
  8.062257766724e+00   8.602325439453e+00   9.219544410706e+00   9.899495124817e+00   1.063014602661e+01   1.140175437927e+01   1.220655536652e+01   1.303840446472e+01   1.389244365692e+01 
  1.476482295990e+01   1.565247631073e+01   1.655294609070e+01   1.746424865723e+01   1.838477706909e+01   1.931320762634e+01   2.024845695496e+01   8.000000000000e+00   8.062257766724e+00 
  8.246211051941e+00   8.544003486633e+00   8.944272041321e+00   9.433980941772e+00   1.000000000000e+01   1.063014602661e+01   1.131370830536e+01   1.204159450531e+01   1.280624866486e+01 
  1.360147094727e+01   1.442220497131e+01   1.526433753967e+01   1.612451553345e+01   1.700000000000e+01   1.788854408264e+01   1.878829383850e+01   1.969771575928e+01   2.061552810669e+01 
  9.000000000000e+00   9.055385589600e+00   9.219544410706e+00   9.486832618713e+00   9.848857879639e+00   1.029563045502e+01   1.081665420532e+01   1.140175437927e+01   1.204159450531e+01 
  1.272792243958e+01   1.345362377167e+01   1.421267032623e+01   1.500000000000e+01   1.581138801575e+01   1.664331626892e+01   1.749285507202e+01   1.835755920410e+01   1.923538398743e+01 
  2.012461090088e+01   2.102379608154e+01   1.000000000000e+01   1.004987525940e+01   1.019803905487e+01   1.044030666351e+01   1.077032947540e+01   1.118033981323e+01   1.166190338135e+01 
  1.220655536652e+01   1.280624866486e+01   1.345362377167e+01   1.414213562012e+01   1.486606884003e+01   1.562049961090e+01   1.640122032166e+01   1.720465087891e+01   1.802775573730e+01 
  1.886796188354e+01   1.972308349609e+01   2.059126091003e+01   2.147091102600e+01   1.100000000000e+01   1.104536056519e+01   1.118033981323e+01   1.140175437927e+01   1.170469951630e+01 
  1.208304595947e+01   1.252996444702e+01   1.303840446472e+01   1.360147094727e+01   1.421267032623e+01   1.486606884003e+01   1.555634880066e+01   1.627882003784e+01   1.702938652039e+01 
  1.780449295044e+01   1.860107612610e+01   1.941648864746e+01   2.024845695496e+01   2.109502220154e+01   2.195449829102e+01   1.200000000000e+01   1.204159450531e+01   1.216552543640e+01 
  1.236931705475e+01   1.264911079407e+01   1.300000000000e+01   1.341640758514e+01   1.389244365692e+01   1.442220497131e+01   1.500000000000e+01   1.562049961090e+01   1.627882003784e+01 
  1.697056198120e+01   1.769180679321e+01   1.843908882141e+01   1.920937347412e+01   2.000000000000e+01   2.080865287781e+01   2.163330841064e+01   2.247220420837e+01   1.300000000000e+01 
  1.303840446472e+01   1.315294647217e+01   1.334166431427e+01   1.360147094727e+01   1.392838859558e+01   1.431782150269e+01   1.476482295990e+01   1.526433753967e+01   1.581138801575e+01 
  1.640122032166e+01   1.702938652039e+01   1.769180679321e+01   1.838477706909e+01   1.910497283936e+01   1.984943389893e+01   2.061552810669e+01   2.140093421936e+01   2.220360374451e+01 
  2.302172851562e+01   1.400000000000e+01   1.403566837311e+01   1.414213562012e+01   1.431782150269e+01   1.456021976471e+01   1.486606884003e+01   1.523154640198e+01   1.565247631073e+01 
  1.612451553345e+01   1.664331626892e+01   1.720465087891e+01   1.780449295044e+01   1.843908882141e+01   1.910497283936e+01   1.979899024963e+01   2.051828384399e+01   2.126029205322e+01 
  2.202271461487e+01   2.280350875854e+01   2.360084724426e+01   1.500000000000e+01   1.503329658508e+01   1.513274574280e+01   1.529705810547e+01   1.552417469025e+01   1.581138801575e+01 
  1.615549468994e+01   1.655294609070e+01   1.700000000000e+01   1.749285507202e+01   1.802775573730e+01   1.860107612610e+01   1.920937347412e+01   1.984943389893e+01   2.051828384399e+01 
  2.121320343018e+01   2.193171310425e+01   2.267156791687e+01   2.343074989319e+01   2.420743751526e+01   1.600000000000e+01   1.603121948242e+01   1.612451553345e+01   1.627882003784e+01 
  1.649242210388e+01   1.676305389404e+01   1.708800697327e+01   1.746424865723e+01   1.788854408264e+01   1.835755920410e+01   1.886796188354e+01   1.941648864746e+01   2.000000000000e+01 
  2.061552810669e+01   2.126029205322e+01   2.193171310425e+01   2.262741661072e+01   2.334523582458e+01   2.408318901062e+01   2.483948516846e+01   1.700000000000e+01   1.702938652039e+01 
  1.711724281311e+01   1.726267623901e+01   1.746424865723e+01   1.772004508972e+01   1.802775573730e+01   1.838477706909e+01   1.878829383850e+01   1.923538398743e+01   1.972308349609e+01 
  2.024845695496e+01   2.080865287781e+01   2.140093421936e+01   2.202271461487e+01   2.267156791687e+01   2.334523582458e+01   2.404162979126e+01   2.475883674622e+01   2.549509811401e+01 
  1.800000000000e+01   1.802775573730e+01   1.811077117920e+01   1.824828720093e+01   1.843908882141e+01   1.868154144287e+01   1.897366523743e+01   1.931320762634e+01   1.969771575928e+01 
  2.012461090088e+01   2.059126091003e+01   2.109502220154e+01   2.163330841064e+01   2.220360374451e+01   2.280350875854e+01   2.343074989319e+01   2.408318901062e+01   2.475883674622e+01 
  2.545584487915e+01   2.617250442505e+01   1.900000000000e+01   1.902629852295e+01   1.910497283936e+01   1.923538398743e+01   1.941648864746e+01   1.964688301086e+01   1.992485809326e+01 
  2.024845695496e+01   2.061552810669e+01   2.102379608154e+01   2.147091102600e+01   2.195449829102e+01   2.247220420837e+01   2.302172851562e+01   2.360084724426e+01   2.420743751526e+01 
  2.483948516846e+01   2.549509811401e+01   2.617250442505e+01   2.687005805969e+01 

